DF-ISE text

Info {
  version   = 1.0
  type      = xyplot
  datasets  = [
    "time"
    "a OuterVoltage" "a InnerVoltage" "a QuasiFermiPotential" "a DisplacementCurrent" "a eCurrent"
    "a hCurrent" "a TotalCurrent" "a Charge" "c OuterVoltage" "c InnerVoltage"
    "c QuasiFermiPotential" "c DisplacementCurrent" "c eCurrent" "c hCurrent" "c TotalCurrent"
    "c Charge" ]
  functions = [
    Time
    OuterVoltage InnerVoltage QuasiFermiPotential DisplacementCurrent eCurrent
    hCurrent TotalCurrent Charge OuterVoltage InnerVoltage
    QuasiFermiPotential DisplacementCurrent eCurrent hCurrent TotalCurrent
    Charge ]
}

Data {
      0.00000000000000E+00
      0.00000000000000E+00   0.00000000000000E+00   0.00000000000000E+00   0.00000000000000E+00  -2.48744595861069E-32
     -1.00362470724008E-20  -1.00362470724257E-20  -1.13595131476399E-16   0.00000000000000E+00   0.00000000000000E+00
      0.00000000000000E+00   0.00000000000000E+00  -1.03942070492727E-20   1.00744167424028E-32  -1.03942070492626E-20
      1.13595131476399E-16
}
