DF-ISE text

Info {
  version   = 1.0
  type      = xyplot
  datasets  = [
    "time"
    "a OuterVoltage" "a InnerVoltage" "a QuasiFermiPotential" "a DisplacementCurrent" "a eCurrent"
    "a hCurrent" "a TotalCurrent" "a Charge" "c OuterVoltage" "c InnerVoltage"
    "c QuasiFermiPotential" "c DisplacementCurrent" "c eCurrent" "c hCurrent" "c TotalCurrent"
    "c Charge" ]
  functions = [
    Time
    OuterVoltage InnerVoltage QuasiFermiPotential DisplacementCurrent eCurrent
    hCurrent TotalCurrent Charge OuterVoltage InnerVoltage
    QuasiFermiPotential DisplacementCurrent eCurrent hCurrent TotalCurrent
    Charge ]
}

Data {
      0.00000000000000E+00
      0.00000000000000E+00   0.00000000000000E+00   0.00000000000000E+00   0.00000000000000E+00   1.62755182849061E-29
      5.86664260686704E-19   5.86664260702979E-19  -1.13595128650785E-16   0.00000000000000E+00   0.00000000000000E+00
      0.00000000000000E+00   0.00000000000000E+00  -8.54403819450216E-19  -8.00467450638360E-30  -8.54403819458220E-19
      1.13595128650784E-16
      1.00000000000000E-02
      1.00000000000000E-02   1.00000000000000E-02   0.00000000000000E+00   0.00000000000000E+00   5.78716405638591E-19
      5.47431658494591E-19   1.12614806413318E-18  -1.12859713039337E-16   0.00000000000000E+00   0.00000000000000E+00
      0.00000000000000E+00   0.00000000000000E+00  -1.05813027761596E-18  -2.13035158783672E-19  -1.27116543639963E-18
      1.12859713039338E-16
      2.26000000000000E-02
      2.26000000000000E-02   2.26000000000000E-02   0.00000000000000E+00   0.00000000000000E+00   1.68251928146594E-18
      1.62769679792392E-18   3.31021607938986E-18  -1.11926411042795E-16   0.00000000000000E+00   0.00000000000000E+00
      0.00000000000000E+00   0.00000000000000E+00  -2.59647292090832E-18  -6.20515476788296E-19  -3.21698839769661E-18
      1.11926411042795E-16
      3.87280000000000E-02
      3.87280000000000E-02   3.87280000000000E-02   0.00000000000000E+00   0.00000000000000E+00   4.09185360337880E-18
      3.52728465290015E-18   7.61913825627895E-18  -1.10720616019193E-16   0.00000000000000E+00   0.00000000000000E+00
      0.00000000000000E+00   0.00000000000000E+00  -6.03695545421758E-18  -1.51268577256568E-18  -7.54964122678326E-18
      1.10720616019193E-16
      5.93718400000000E-02
      5.93718400000000E-02   5.93718400000000E-02   0.00000000000000E+00   0.00000000000000E+00   1.02416577739952E-17
      9.73151011583885E-18   1.99731678898341E-17  -1.09158239362101E-16   0.00000000000000E+00   0.00000000000000E+00
      0.00000000000000E+00   0.00000000000000E+00  -1.59696597105026E-17  -3.79776780185047E-18  -1.97674275123530E-17
      1.09158239362101E-16
      8.57959552000000E-02
      8.57959552000000E-02   8.57959552000000E-02   0.00000000000000E+00   0.00000000000000E+00   2.94281485100588E-17
      3.45420252649112E-17   6.39701737749700E-17  -1.07125864419563E-16   0.00000000000000E+00   0.00000000000000E+00
      0.00000000000000E+00   0.00000000000000E+00  -5.46402676166167E-17  -1.09553246096138E-17  -6.55955922262305E-17
      1.07125864419563E-16
      1.19618822656000E-01
      1.19618822656000E-01   1.19618822656000E-01   0.00000000000000E+00   0.00000000000000E+00   1.06883135898997E-16
      1.75810414283830E-16   2.82693550182827E-16  -1.04467783778768E-16   0.00000000000000E+00   0.00000000000000E+00
      0.00000000000000E+00   0.00000000000000E+00  -2.80481440700394E-16  -3.99899451649304E-17  -3.20471385865324E-16
      1.04467783778768E-16
      1.62912092999680E-01
      1.62912092999680E-01   1.62912092999680E-01   0.00000000000000E+00   0.00000000000000E+00   5.42629426221550E-16
      2.38131859059050E-16   7.80761285280600E-16  -1.00964842044071E-16   0.00000000000000E+00   0.00000000000000E+00
      0.00000000000000E+00   0.00000000000000E+00  -5.77011537084865E-16  -2.04324431632725E-16  -7.81335968717590E-16
      1.00964842044072E-16
      2.00000000000000E-01
      2.00000000000000E-01   2.00000000000000E-01   0.00000000000000E+00   0.00000000000000E+00   2.17133986419737E-15
      8.95821727891036E-16   3.06716159208841E-15  -9.78654192283055E-17   0.00000000000000E+00   0.00000000000000E+00
      0.00000000000000E+00   0.00000000000000E+00  -2.24523811282353E-15  -8.22054596095612E-16  -3.06729270891914E-15
      9.78654192283054E-17
      2.50000000000000E-01
      2.50000000000000E-01   2.50000000000000E-01   0.00000000000000E+00   0.00000000000000E+00   1.40643491380211E-14
      5.56984705889761E-15   1.96341961969187E-14  -9.35258194070938E-17   0.00000000000000E+00   0.00000000000000E+00
      0.00000000000000E+00   0.00000000000000E+00  -1.42714770300479E-14  -5.36321630463050E-15  -1.96346933346784E-14
      9.35258194070939E-17
      3.00000000000000E-01
      3.00000000000000E-01   3.00000000000000E-01   0.00000000000000E+00   0.00000000000000E+00   9.10954905137066E-14
      3.55646312525235E-14   1.26660121766230E-13  -8.89760997023404E-17   0.00000000000000E+00   0.00000000000000E+00
      0.00000000000000E+00   0.00000000000000E+00  -9.16751807362150E-14  -3.49845117840548E-14  -1.26659692520270E-13
      8.89760997023403E-17
      3.50000000000000E-01
      3.50000000000000E-01   3.50000000000000E-01   0.00000000000000E+00   0.00000000000000E+00   5.90049704503759E-13
      2.29816669604385E-13   8.19866374108144E-13  -8.41820583458576E-17   0.00000000000000E+00   0.00000000000000E+00
      0.00000000000000E+00   0.00000000000000E+00  -5.91686916370116E-13  -2.28178712737264E-13  -8.19865629107381E-13
      8.41820583458574E-17
      4.00000000000000E-01
      4.00000000000000E-01   4.00000000000000E-01   0.00000000000000E+00   0.00000000000000E+00   3.82110591961658E-12
      1.49237775110013E-12   5.31348367071671E-12  -7.90995823756915E-17   0.00000000000000E+00   0.00000000000000E+00
      0.00000000000000E+00   0.00000000000000E+00  -3.82578034907065E-12  -1.48770337156186E-12  -5.31348372063251E-12
      7.90995823756914E-17
      4.50000000000000E-01
      4.50000000000000E-01   4.50000000000000E-01   0.00000000000000E+00   0.00000000000000E+00   2.47304093208043E-11
      9.70607708330500E-12   3.44364864041093E-11  -7.36704247528574E-17   0.00000000000000E+00   0.00000000000000E+00
      0.00000000000000E+00   0.00000000000000E+00  -2.47439695714241E-11  -9.69251674813212E-12  -3.44364863195562E-11
      7.36704247528573E-17
      5.00000000000000E-01
      5.00000000000000E-01   5.00000000000000E-01   0.00000000000000E+00   0.00000000000000E+00   1.59872302064514E-10
      6.31076350910732E-11   2.22979937155587E-10  -6.78159819006838E-17   0.00000000000000E+00   0.00000000000000E+00
      0.00000000000000E+00   0.00000000000000E+00  -1.59912647862232E-10  -6.30672901773567E-11  -2.22979938039589E-10
      6.78159819006840E-17
      5.50000000000000E-01
      5.50000000000000E-01   5.50000000000000E-01   0.00000000000000E+00   0.00000000000000E+00   1.03142750350244E-09
      4.09633377860747E-10   1.44106088136319E-09  -6.14287641979048E-17   0.00000000000000E+00   0.00000000000000E+00
      0.00000000000000E+00   0.00000000000000E+00  -1.03155227892573E-09  -4.09508602355442E-10  -1.44106088128117E-09
      6.14287641979049E-17
      6.00000000000000E-01
      6.00000000000000E-01   6.00000000000000E-01   0.00000000000000E+00   0.00000000000000E+00   6.63035731939816E-09
      2.64989279104163E-09   9.28025011043980E-09  -5.43637843123387E-17   0.00000000000000E+00   0.00000000000000E+00
      0.00000000000000E+00   0.00000000000000E+00  -6.63076600723189E-09  -2.64948410271938E-09  -9.28025010995127E-09
      5.43637843123388E-17
      6.50000000000000E-01
      6.50000000000000E-01   6.50000000000000E-01   0.00000000000000E+00   0.00000000000000E+00   4.23021916748805E-08
      1.70184773954217E-08   5.93206690703021E-08  -4.64446140847667E-17   0.00000000000000E+00   0.00000000000000E+00
      0.00000000000000E+00   0.00000000000000E+00  -4.23036368070961E-08  -1.70170322631096E-08  -5.93206690702057E-08
      4.64446140847667E-17
      7.00000000000000E-01
      7.00000000000000E-01   7.00000000000000E-01   0.00000000000000E+00   0.00000000000000E+00   2.64252511165048E-07
      1.07104150138792E-07   3.71356661303840E-07  -3.75527983940054E-17   0.00000000000000E+00   0.00000000000000E+00
      0.00000000000000E+00   0.00000000000000E+00  -2.64258026230496E-07  -1.07098635073855E-07  -3.71356661304351E-07
      3.75527983940054E-17
      7.50000000000000E-01
      7.50000000000000E-01   7.50000000000000E-01   0.00000000000000E+00   0.00000000000000E+00   1.53126501137780E-06
      6.26745210052404E-07   2.15801022143020E-06  -2.80322508751843E-17   0.00000000000000E+00   0.00000000000000E+00
      0.00000000000000E+00   0.00000000000000E+00  -1.53128602721714E-06  -6.26724194213367E-07  -2.15801022143050E-06
      2.80322508751842E-17
      8.00000000000000E-01
      8.00000000000000E-01   8.00000000000000E-01   0.00000000000000E+00   0.00000000000000E+00   7.05403221568911E-06
      2.92690874557347E-06   9.98094096126258E-06  -1.93975681433015E-17   0.00000000000000E+00   0.00000000000000E+00
      0.00000000000000E+00   0.00000000000000E+00  -7.05409626853759E-06  -2.92684469272424E-06  -9.98094096126183E-06
      1.93975681433015E-17
      8.50000000000000E-01
      8.50000000000000E-01   8.50000000000000E-01   0.00000000000000E+00   0.00000000000000E+00   2.21709641500241E-05
      9.32845255079358E-06   3.14994167008177E-05  -1.31357641008886E-17   0.00000000000000E+00   0.00000000000000E+00
      0.00000000000000E+00   0.00000000000000E+00  -2.21710980522128E-05  -9.32831864860531E-06  -3.14994167008181E-05
      1.31357641008886E-17
      9.00000000000000E-01
      9.00000000000000E-01   9.00000000000000E-01   0.00000000000000E+00   0.00000000000000E+00   4.97342138693361E-05
      2.11374779232296E-05   7.08716917925657E-05  -8.84984007252675E-18   0.00000000000000E+00   0.00000000000000E+00
      0.00000000000000E+00   0.00000000000000E+00  -4.97344261451340E-05  -2.11372656474321E-05  -7.08716917925661E-05
      8.84984007252674E-18
      9.50000000000000E-01
      9.50000000000000E-01   9.50000000000000E-01   0.00000000000000E+00   0.00000000000000E+00   8.93395973262719E-05
      3.82162851895663E-05   1.27555882515838E-04  -5.68317956115018E-18   0.00000000000000E+00   0.00000000000000E+00
      0.00000000000000E+00   0.00000000000000E+00  -8.93398855795806E-05  -3.82159969363500E-05  -1.27555882515931E-04
      5.68317956115017E-18
      1.00000000000000E+00
      1.00000000000000E+00   1.00000000000000E+00   0.00000000000000E+00   0.00000000000000E+00   1.39111781713994E-04
      5.97555746651602E-05   1.98867356379154E-04  -3.14650473416887E-18   0.00000000000000E+00   0.00000000000000E+00
      0.00000000000000E+00   0.00000000000000E+00  -1.39112139231370E-04  -5.97552171477845E-05  -1.98867356379155E-04
      3.14650473416887E-18
}
